     Message from routine get_command_line:
     unexpected argument # 2     :-inp

     Program PWSCF v.6.0 starts on 27May2021 at 14:31: 7 

     This program is part of the open-source Quantum ESPRESSO suite
     for quantum simulation of materials; please cite
         "P. Giannozzi et al., J. Phys.:Condens. Matter 21 395502 (2009);
          URL http://www.quantum-espresso.org", 
     in publications or presentations arising from this work. More details at
     http://www.quantum-espresso.org/quote

     Parallel version (MPI), running on     1 processors
     Waiting for input...
     Reading input from standard input

     Current dimensions of program PWSCF are:
     Max number of different atomic species (ntypx) = 10
     Max number of k-points (npk) =  40000
     Max angular momentum in pseudopotentials (lmaxx) =  3

     Atomic positions and unit cell read from directory:
     ./outdir/graphene.save/

               file C.pbe-n-kjpaw_psl.1.0.0.UPF: wavefunction(s)  2S 2P renormalized

     Subspace diagonalization in iterative solution of the eigenvalue problem:
     a serial algorithm will be used


     G-vector sticks info
     --------------------
     sticks:   dense  smooth     PW     G-vecs:    dense   smooth      PW
     Sum         595     241     85                95783    24285    4579



     bravais-lattice index     =            0
     lattice parameter (alat)  =       4.6487  a.u.
     unit-cell volume          =     708.9691 (a.u.)^3
     number of atoms/cell      =            2
     number of atomic types    =            1
     number of electrons       =         8.00
     number of Kohn-Sham states=            8
     kinetic-energy cutoff     =      40.0000  Ry
     charge density cutoff     =     400.0000  Ry
     Exchange-correlation      =  SLA  PW   PBX  PBC ( 1  4  3  4 0 0)

     celldm(1)=   4.648726  celldm(2)=   0.000000  celldm(3)=   0.000000
     celldm(4)=   0.000000  celldm(5)=   0.000000  celldm(6)=   0.000000

     crystal axes: (cart. coord. in units of alat)
               a(1) = (   1.000000   0.000000   0.000000 )  
               a(2) = (  -0.501152   0.868021   0.000000 )  
               a(3) = (   0.000000   0.000000   8.130081 )  

     reciprocal axes: (cart. coord. in units 2 pi/alat)
               b(1) = (  1.000000  0.577350 -0.000000 )  
               b(2) = (  0.000000  1.152045  0.000000 )  
               b(3) = (  0.000000 -0.000000  0.123000 )  


     PseudoPot. # 1 for  C read from file:
     /home/maestro/Downloads/SSSP_efficiency_pseudos/C.pbe-n-kjpaw_psl.1.0.0.UPF
     MD5 check sum: 5d2aebdfa2cae82b50a7e79e9516da0f
     Pseudo is Projector augmented-wave + core cor, Zval =  4.0
     Generated using "atomic" code by A. Dal Corso  v.5.1
     Shape of augmentation charge: PSQ
     Using radial grid of 1073 points,  4 beta functions with: 
                l(1) =   0
                l(2) =   0
                l(3) =   1
                l(4) =   1
     Q(r) pseudized with 0 coefficients 


     atomic species   valence    mass     pseudopotential
        C              4.00    12.01070      C( 1.00)

      2 Sym. Ops. (no inversion) found ( 1 have fractional translation)
          (note:  2 additional sym.ops. were found but ignored
           their fractional translations are incommensurate with FFT grid)


   Cartesian axes

     site n.     atom                  positions (alat units)
         1           C   tau(   1) = (   0.0000000   0.0000000   2.0325203  )
         2           C   tau(   2) = (  -0.0007683   0.5786810   2.0325203  )

     number of k points=    91  Marzari-Vanderbilt smearing, width (Ry)=  0.0001
                       cart. coord. in units 2pi/alat
        k(    1) = (   0.0000000   0.0000000   0.0000000), wk =   0.0219780
        k(    2) = (  -0.0111111   0.0191860   0.0000000), wk =   0.0219780
        k(    3) = (  -0.0222222   0.0383720   0.0000000), wk =   0.0219780
        k(    4) = (  -0.0333333   0.0575580   0.0000000), wk =   0.0219780
        k(    5) = (  -0.0444444   0.0767440   0.0000000), wk =   0.0219780
        k(    6) = (  -0.0555556   0.0959300   0.0000000), wk =   0.0219780
        k(    7) = (  -0.0666667   0.1151160   0.0000000), wk =   0.0219780
        k(    8) = (  -0.0777778   0.1343020   0.0000000), wk =   0.0219780
        k(    9) = (  -0.0888889   0.1534880   0.0000000), wk =   0.0219780
        k(   10) = (  -0.1000000   0.1726740   0.0000000), wk =   0.0219780
        k(   11) = (  -0.1111111   0.1918600   0.0000000), wk =   0.0219780
        k(   12) = (  -0.1222222   0.2110460   0.0000000), wk =   0.0219780
        k(   13) = (  -0.1333333   0.2302320   0.0000000), wk =   0.0219780
        k(   14) = (  -0.1444444   0.2494180   0.0000000), wk =   0.0219780
        k(   15) = (  -0.1555556   0.2686040   0.0000000), wk =   0.0219780
        k(   16) = (  -0.1666667   0.2877900   0.0000000), wk =   0.0219780
        k(   17) = (  -0.1777778   0.3069760   0.0000000), wk =   0.0219780
        k(   18) = (  -0.1888889   0.3261620   0.0000000), wk =   0.0219780
        k(   19) = (  -0.2000000   0.3453480   0.0000000), wk =   0.0219780
        k(   20) = (  -0.2111111   0.3645340   0.0000000), wk =   0.0219780
        k(   21) = (  -0.2222222   0.3837200   0.0000000), wk =   0.0219780
        k(   22) = (  -0.2333333   0.4029060   0.0000000), wk =   0.0219780
        k(   23) = (  -0.2444444   0.4220920   0.0000000), wk =   0.0219780
        k(   24) = (  -0.2555556   0.4412780   0.0000000), wk =   0.0219780
        k(   25) = (  -0.2666667   0.4604640   0.0000000), wk =   0.0219780
        k(   26) = (  -0.2777778   0.4796501   0.0000000), wk =   0.0219780
        k(   27) = (  -0.2888889   0.4988361   0.0000000), wk =   0.0219780
        k(   28) = (  -0.3000000   0.5180221   0.0000000), wk =   0.0219780
        k(   29) = (  -0.3111111   0.5372081   0.0000000), wk =   0.0219780
        k(   30) = (  -0.3222222   0.5563941   0.0000000), wk =   0.0219780
        k(   31) = (  -0.3333333   0.5755801   0.0000000), wk =   0.0219780
        k(   32) = (  -0.3222222   0.5755948   0.0000000), wk =   0.0219780
        k(   33) = (  -0.3111111   0.5756096   0.0000000), wk =   0.0219780
        k(   34) = (  -0.3000000   0.5756243   0.0000000), wk =   0.0219780
        k(   35) = (  -0.2888889   0.5756391   0.0000000), wk =   0.0219780
        k(   36) = (  -0.2777778   0.5756538   0.0000000), wk =   0.0219780
        k(   37) = (  -0.2666667   0.5756686   0.0000000), wk =   0.0219780
        k(   38) = (  -0.2555556   0.5756833   0.0000000), wk =   0.0219780
        k(   39) = (  -0.2444444   0.5756981   0.0000000), wk =   0.0219780
        k(   40) = (  -0.2333333   0.5757128   0.0000000), wk =   0.0219780
        k(   41) = (  -0.2222222   0.5757276   0.0000000), wk =   0.0219780
        k(   42) = (  -0.2111111   0.5757423   0.0000000), wk =   0.0219780
        k(   43) = (  -0.2000000   0.5757571   0.0000000), wk =   0.0219780
        k(   44) = (  -0.1888889   0.5757718   0.0000000), wk =   0.0219780
        k(   45) = (  -0.1777778   0.5757866   0.0000000), wk =   0.0219780
        k(   46) = (  -0.1666667   0.5758013   0.0000000), wk =   0.0219780
        k(   47) = (  -0.1555556   0.5758161   0.0000000), wk =   0.0219780
        k(   48) = (  -0.1444444   0.5758308   0.0000000), wk =   0.0219780
        k(   49) = (  -0.1333333   0.5758456   0.0000000), wk =   0.0219780
        k(   50) = (  -0.1222222   0.5758603   0.0000000), wk =   0.0219780
        k(   51) = (  -0.1111111   0.5758751   0.0000000), wk =   0.0219780
        k(   52) = (  -0.1000000   0.5758898   0.0000000), wk =   0.0219780
        k(   53) = (  -0.0888889   0.5759046   0.0000000), wk =   0.0219780
        k(   54) = (  -0.0777778   0.5759194   0.0000000), wk =   0.0219780
        k(   55) = (  -0.0666667   0.5759341   0.0000000), wk =   0.0219780
        k(   56) = (  -0.0555556   0.5759489   0.0000000), wk =   0.0219780
        k(   57) = (  -0.0444444   0.5759636   0.0000000), wk =   0.0219780
        k(   58) = (  -0.0333333   0.5759784   0.0000000), wk =   0.0219780
        k(   59) = (  -0.0222222   0.5759931   0.0000000), wk =   0.0219780
        k(   60) = (  -0.0111111   0.5760079   0.0000000), wk =   0.0219780
        k(   61) = (   0.0000000   0.5760226   0.0000000), wk =   0.0219780
        k(   62) = (   0.0000000   0.5568219   0.0000000), wk =   0.0219780
        k(   63) = (   0.0000000   0.5376211   0.0000000), wk =   0.0219780
        k(   64) = (   0.0000000   0.5184204   0.0000000), wk =   0.0219780
        k(   65) = (   0.0000000   0.4992196   0.0000000), wk =   0.0219780
        k(   66) = (   0.0000000   0.4800188   0.0000000), wk =   0.0219780
        k(   67) = (   0.0000000   0.4608181   0.0000000), wk =   0.0219780
        k(   68) = (   0.0000000   0.4416173   0.0000000), wk =   0.0219780
        k(   69) = (   0.0000000   0.4224166   0.0000000), wk =   0.0219780
        k(   70) = (   0.0000000   0.4032158   0.0000000), wk =   0.0219780
        k(   71) = (   0.0000000   0.3840151   0.0000000), wk =   0.0219780
        k(   72) = (   0.0000000   0.3648143   0.0000000), wk =   0.0219780
        k(   73) = (   0.0000000   0.3456136   0.0000000), wk =   0.0219780
        k(   74) = (   0.0000000   0.3264128   0.0000000), wk =   0.0219780
        k(   75) = (   0.0000000   0.3072121   0.0000000), wk =   0.0219780
        k(   76) = (   0.0000000   0.2880113   0.0000000), wk =   0.0219780
        k(   77) = (   0.0000000   0.2688106   0.0000000), wk =   0.0219780
        k(   78) = (   0.0000000   0.2496098   0.0000000), wk =   0.0219780
        k(   79) = (   0.0000000   0.2304090   0.0000000), wk =   0.0219780
        k(   80) = (   0.0000000   0.2112083   0.0000000), wk =   0.0219780
        k(   81) = (   0.0000000   0.1920075   0.0000000), wk =   0.0219780
        k(   82) = (   0.0000000   0.1728068   0.0000000), wk =   0.0219780
        k(   83) = (   0.0000000   0.1536060   0.0000000), wk =   0.0219780
        k(   84) = (   0.0000000   0.1344053   0.0000000), wk =   0.0219780
        k(   85) = (   0.0000000   0.1152045   0.0000000), wk =   0.0219780
        k(   86) = (   0.0000000   0.0960038   0.0000000), wk =   0.0219780
        k(   87) = (   0.0000000   0.0768030   0.0000000), wk =   0.0219780
        k(   88) = (   0.0000000   0.0576023   0.0000000), wk =   0.0219780
        k(   89) = (   0.0000000   0.0384015   0.0000000), wk =   0.0219780
        k(   90) = (   0.0000000   0.0192008   0.0000000), wk =   0.0219780
        k(   91) = (   0.0000000   0.0000000   0.0000000), wk =   0.0219780

     Dense  grid:    95783 G-vectors     FFT dimensions: (  30,  30, 243)

     Smooth grid:    24285 G-vectors     FFT dimensions: (  20,  20, 160)

     Estimated max dynamical RAM per process >      30.42Mb

     Check: negative/imaginary core charge=   -0.000002    0.000000

     The potential is recalculated from file :
     ./outdir/graphene.save/charge-density.dat


     negative rho (up, down):  1.263E-04 0.000E+00
     Starting wfc are    8 randomized atomic wfcs
     Checking if some PAW data can be deallocated... 

     Band Structure Calculation
     Davidson diagonalization with overlap

     ethr =  1.25E-12,  avg # of iterations = 36.8

     total cpu time spent up to now is       82.4 secs

     End of band structure calculation

          k = 0.0000 0.0000 0.0000 (  3053 PWs)   bands (ev):

   -21.8953  -9.9835  -5.3960  -5.3767   0.8502   1.5174   1.6469   2.6570

          k =-0.0111 0.0192 0.0000 (  3059 PWs)   bands (ev):

   -21.8866  -9.9730  -5.4319  -5.3970   0.8621   1.5295   1.6591   2.6690

          k =-0.0222 0.0384 0.0000 (  3057 PWs)   bands (ev):

   -21.8603  -9.9416  -5.5387  -5.4558   0.8979   1.5657   1.6956   2.7052

          k =-0.0333 0.0576 0.0000 (  3057 PWs)   bands (ev):

   -21.8166  -9.8893  -5.7114  -5.5524   0.9575   1.6262   1.7564   2.7654

          k =-0.0444 0.0767 0.0000 (  3053 PWs)   bands (ev):

   -21.7554  -9.8162  -5.9422  -5.6853   1.0409   1.7108   1.8415   2.8497

          k =-0.0556 0.0959 0.0000 (  3051 PWs)   bands (ev):

   -21.6768  -9.7222  -6.2222  -5.8526   1.1481   1.8195   1.9510   2.9581

          k =-0.0667 0.1151 0.0000 (  3039 PWs)   bands (ev):

   -21.5808  -9.6077  -6.5420  -6.0517   1.2792   1.9524   2.0848   3.0905

          k =-0.0778 0.1343 0.0000 (  3039 PWs)   bands (ev):

   -21.4675  -9.4728  -6.8932  -6.2800   1.4342   2.1093   2.2430   3.2469

          k =-0.0889 0.1535 0.0000 (  3045 PWs)   bands (ev):

   -21.3370  -9.3176  -7.2681  -6.5345   1.6130   2.2903   2.4254   3.4272

          k =-0.1000 0.1727 0.0000 (  3049 PWs)   bands (ev):

   -21.1893  -9.1424  -7.6601  -6.8118   1.8156   2.4954   2.6323   3.6315

          k =-0.1111 0.1919 0.0000 (  3047 PWs)   bands (ev):

   -21.0246  -8.9476  -8.0635  -7.1087   2.0420   2.7244   2.8634   3.8595

          k =-0.1222 0.2110 0.0000 (  3047 PWs)   bands (ev):

   -20.8429  -8.7333  -8.4737  -7.4220   2.2921   2.9772   3.1189   4.1113

          k =-0.1333 0.2302 0.0000 (  3043 PWs)   bands (ev):

   -20.6444  -8.8870  -8.5001  -7.7486   2.5660   3.2538   3.3988   4.3867

          k =-0.1444 0.2494 0.0000 (  3045 PWs)   bands (ev):

   -20.4293  -9.3003  -8.2485  -8.0854   2.8634   3.5541   3.7029   4.6855

          k =-0.1556 0.2686 0.0000 (  3029 PWs)   bands (ev):

   -20.1977  -9.7109  -8.4296  -7.9789   3.1844   3.8778   4.0314   4.5648

          k =-0.1667 0.2878 0.0000 (  3023 PWs)   bands (ev):

   -19.9500 -10.1168  -8.7786  -7.6921   3.5288   4.0675   4.2247   4.3842

          k =-0.1778 0.3070 0.0000 (  3035 PWs)   bands (ev):

   -19.6863 -10.5164  -9.1300  -7.3888   3.5701   3.8965   4.5944   4.7613

          k =-0.1889 0.3262 0.0000 (  3039 PWs)   bands (ev):

   -19.4070 -10.9082  -9.4816  -7.0699   3.0757   4.2873   4.9863   5.1626

          k =-0.2000 0.3453 0.0000 (  3047 PWs)   bands (ev):

   -19.1125 -11.2908  -9.8309  -6.7365   2.5866   4.7010   5.3997   5.5882

          k =-0.2111 0.3645 0.0000 (  3037 PWs)   bands (ev):

   -18.8032 -11.6634 -10.1762  -6.3898   2.1049   5.1373   5.8331   6.0381

          k =-0.2222 0.3837 0.0000 (  3033 PWs)   bands (ev):

   -18.4798 -12.0252 -10.5155  -6.0312   1.6323   5.5957   6.2842   6.5121

          k =-0.2333 0.4029 0.0000 (  3029 PWs)   bands (ev):

   -18.1429 -12.3754 -10.8471  -5.6625   1.1705   6.0756   6.7486   7.0102

          k =-0.2444 0.4221 0.0000 (  3019 PWs)   bands (ev):

   -17.7937 -12.7136 -11.1689  -5.2857   0.7209   6.5763   7.2171   7.5324

          k =-0.2556 0.4413 0.0000 (  3019 PWs)   bands (ev):

   -17.4333 -13.0392 -11.4792  -4.9032   0.2847   7.0965   7.6696   8.0784

          k =-0.2667 0.4605 0.0000 (  3011 PWs)   bands (ev):

   -17.0635 -13.3519 -11.7755  -4.5176  -0.1372   7.6341   8.0609   8.6482

          k =-0.2778 0.4797 0.0000 (  3003 PWs)   bands (ev):

   -16.6870 -13.6513 -12.0550  -4.1322  -0.5436   8.1859   8.3178   9.2412

          k =-0.2889 0.4988 0.0000 (  3001 PWs)   bands (ev):

   -16.3076 -13.9372 -12.3137  -3.7505  -0.9340   8.4107   8.7461   9.8565

          k =-0.3000 0.5180 0.0000 (  2989 PWs)   bands (ev):

   -15.9317 -14.2092 -12.5453  -3.3766  -1.3072   8.3986   9.3034  10.4911

          k =-0.3111 0.5372 0.0000 (  2981 PWs)   bands (ev):

   -15.5698 -14.4673 -12.7397  -3.0151  -1.6628   8.3500   9.8339  10.7444

          k =-0.3222 0.5564 0.0000 (  2986 PWs)   bands (ev):

   -15.2404 -14.7111 -12.8792  -2.6705  -2.0004   8.3058  10.2824  10.6914

          k =-0.3333 0.5756 0.0000 (  2997 PWs)   bands (ev):

   -14.9751 -14.9385 -12.9351  -2.3495  -2.3175   8.2879  10.5361  10.5963

          k =-0.3222 0.5756 0.0000 (  2993 PWs)   bands (ev):

   -15.0829 -14.8432 -12.9181  -2.5007  -2.1679   8.2931  10.4767  10.6139

          k =-0.3111 0.5756 0.0000 (  2991 PWs)   bands (ev):

   -15.1890 -14.7746 -12.8676  -2.6489  -2.0235   8.3089  10.4069  10.5793

          k =-0.3000 0.5756 0.0000 (  2992 PWs)   bands (ev):

   -15.2916 -14.7348 -12.7834  -2.7923  -1.8866   8.3357  10.3298  10.5098

          k =-0.2889 0.5756 0.0000 (  2996 PWs)   bands (ev):

   -15.3905 -14.7212 -12.6686  -2.9308  -1.7577   8.3737  10.2470  10.4164

          k =-0.2778 0.5757 0.0000 (  2996 PWs)   bands (ev):

   -15.4858 -14.7294 -12.5276  -3.0644  -1.6368   8.4228  10.1600  10.3016

          k =-0.2667 0.5757 0.0000 (  2992 PWs)   bands (ev):

   -15.5774 -14.7542 -12.3661  -3.1930  -1.5243   8.4826  10.0701  10.1595

          k =-0.2556 0.5757 0.0000 (  2998 PWs)   bands (ev):

   -15.6653 -14.7910 -12.1891  -3.3166  -1.4202   8.5524   9.9665   9.9884

          k =-0.2444 0.5757 0.0000 (  3000 PWs)   bands (ev):

   -15.7496 -14.8361 -12.0006  -3.4352  -1.3246   8.6310   9.7438   9.8898

          k =-0.2333 0.5757 0.0000 (  3004 PWs)   bands (ev):

   -15.8301 -14.8864 -11.8042  -3.5487  -1.2373   8.7170   9.4791   9.7986

          k =-0.2222 0.5757 0.0000 (  2998 PWs)   bands (ev):

   -15.9069 -14.9398 -11.6023  -3.6571  -1.1581   8.8088   9.1938   9.7091

          k =-0.2111 0.5757 0.0000 (  3002 PWs)   bands (ev):

   -15.9800 -14.9948 -11.3972  -3.7604  -1.0868   8.8977   8.9041   9.6216

          k =-0.2000 0.5758 0.0000 (  3008 PWs)   bands (ev):

   -16.0494 -15.0500 -11.1907  -3.8584  -1.0230   8.5969   9.0005   9.5366

          k =-0.1889 0.5758 0.0000 (  2997 PWs)   bands (ev):

   -16.1150 -15.1046 -10.9842  -3.9513  -0.9662   8.2959   9.0953   9.4546

          k =-0.1778 0.5758 0.0000 (  2994 PWs)   bands (ev):

   -16.1769 -15.1579 -10.7793  -4.0390  -0.9161   7.9976   9.1855   9.3760

          k =-0.1667 0.5758 0.0000 (  2998 PWs)   bands (ev):

   -16.2351 -15.2094 -10.5774  -4.1215  -0.8721   7.7043   9.2684   9.3010

          k =-0.1556 0.5758 0.0000 (  3003 PWs)   bands (ev):

   -16.2896 -15.2587 -10.3795  -4.1987  -0.8339   7.4187   9.2300   9.3414

          k =-0.1444 0.5758 0.0000 (  3006 PWs)   bands (ev):

   -16.3403 -15.3054 -10.1870  -4.2707  -0.8007   7.1425   9.1632   9.3438

          k =-0.1333 0.5758 0.0000 (  3006 PWs)   bands (ev):

   -16.3872 -15.3494 -10.0012  -4.3374  -0.7722   6.8774   9.1008   9.2760

          k =-0.1222 0.5759 0.0000 (  3006 PWs)   bands (ev):

   -16.4304 -15.3903  -9.8232  -4.3988  -0.7478   6.6254   9.0429   9.2132

          k =-0.1111 0.5759 0.0000 (  3010 PWs)   bands (ev):

   -16.4699 -15.4281  -9.6545  -4.4549  -0.7273   6.3880   8.9896   9.1558

          k =-0.1000 0.5759 0.0000 (  3014 PWs)   bands (ev):

   -16.5056 -15.4626  -9.4964  -4.5057  -0.7101   6.1670   8.9412   9.1037

          k =-0.0889 0.5759 0.0000 (  3022 PWs)   bands (ev):

   -16.5376 -15.4938  -9.3502  -4.5512  -0.6958   5.9639   8.8976   9.0569

          k =-0.0778 0.5759 0.0000 (  3034 PWs)   bands (ev):

   -16.5658 -15.5214  -9.2173  -4.5914  -0.6841   5.7802   8.8590   9.0155

          k =-0.0667 0.5759 0.0000 (  3032 PWs)   bands (ev):

   -16.5902 -15.5454  -9.0988  -4.6262  -0.6745   5.6175   8.8254   8.9796

          k =-0.0556 0.5759 0.0000 (  3026 PWs)   bands (ev):

   -16.6109 -15.5659  -8.9960  -4.6557  -0.6668   5.4772   8.7968   8.9491

          k =-0.0444 0.5760 0.0000 (  3024 PWs)   bands (ev):

   -16.6278 -15.5827  -8.9103  -4.6798  -0.6609   5.3604   8.7734   8.9242

          k =-0.0333 0.5760 0.0000 (  3032 PWs)   bands (ev):

   -16.6410 -15.5958  -8.8425  -4.6986  -0.6566   5.2684   8.7552   8.9047

          k =-0.0222 0.5760 0.0000 (  3040 PWs)   bands (ev):

   -16.6504 -15.6052  -8.7934  -4.7121  -0.6536   5.2019   8.7422   8.8908

          k =-0.0111 0.5760 0.0000 (  3044 PWs)   bands (ev):

   -16.6561 -15.6108  -8.7638  -4.7201  -0.6518   5.1618   8.7343   8.8825

          k = 0.0000 0.5760 0.0000 (  3040 PWs)   bands (ev):

   -16.6580 -15.6127  -8.7537  -4.7228  -0.6512   5.1484   8.7317   8.8797

          k = 0.0000 0.5568 0.0000 (  3044 PWs)   bands (ev):

   -16.7694 -15.4915  -8.7472  -4.7657  -0.5980   5.1516   8.2939   9.0696

          k = 0.0000 0.5376 0.0000 (  3038 PWs)   bands (ev):

   -17.0174 -15.2140  -8.7277  -4.8878  -0.4449   5.1612   7.8037   8.5722

          k = 0.0000 0.5184 0.0000 (  3044 PWs)   bands (ev):

   -17.3104 -14.8722  -8.6951  -5.0734  -0.2080   5.1770   7.3268   8.0872

          k = 0.0000 0.4992 0.0000 (  3048 PWs)   bands (ev):

   -17.6144 -14.5000  -8.6496  -5.3042   0.0943   5.1985   6.8654   7.6172

          k = 0.0000 0.4800 0.0000 (  3044 PWs)   bands (ev):

   -17.9176 -14.1095  -8.5913  -5.5646   0.4456   5.2249   6.4212   7.1631

          k = 0.0000 0.4608 0.0000 (  3036 PWs)   bands (ev):

   -18.2152 -13.7060  -8.5205  -5.8423   0.8331   5.2532   5.9970   6.7256

          k = 0.0000 0.4416 0.0000 (  3037 PWs)   bands (ev):

   -18.5046 -13.2925  -8.4375  -6.1286   1.2471   5.2673   5.6089   6.3051

          k = 0.0000 0.4224 0.0000 (  3030 PWs)   bands (ev):

   -18.7845 -12.8705  -8.3426  -6.4173   1.6805   5.1117   5.4115   5.9019

          k = 0.0000 0.4032 0.0000 (  3032 PWs)   bands (ev):

   -19.0541 -12.4418  -8.2361  -6.7041   2.1276   4.7642   5.4230   5.5165

          k = 0.0000 0.3840 0.0000 (  3038 PWs)   bands (ev):

   -19.3127 -12.0075  -8.1186  -6.9857   2.5835   4.4085   5.1493   5.2852

          k = 0.0000 0.3648 0.0000 (  3030 PWs)   bands (ev):

   -19.5601 -11.5689  -7.9902  -7.2600   3.0432   4.0655   4.8017   4.9375

          k = 0.0000 0.3456 0.0000 (  3026 PWs)   bands (ev):

   -19.7959 -11.1274  -7.8520  -7.5251   3.4986   3.7383   4.4782   4.6015

          k = 0.0000 0.3264 0.0000 (  3034 PWs)   bands (ev):

   -20.0197 -10.6844  -7.7797  -7.7046   3.4279   3.8943   4.2288   4.2828

          k = 0.0000 0.3072 0.0000 (  3036 PWs)   bands (ev):

   -20.2315 -10.2414  -8.0229  -7.5487   3.1346   3.8058   3.9820   4.4640

          k = 0.0000 0.2880 0.0000 (  3038 PWs)   bands (ev):

   -20.4311  -9.8001  -8.2537  -7.3855   2.8588   3.5437   3.6994   4.6355

          k = 0.0000 0.2688 0.0000 (  3044 PWs)   bands (ev):

   -20.6183  -9.3625  -8.4716  -7.2160   2.6004   3.2868   3.4349   4.4130

          k = 0.0000 0.2496 0.0000 (  3044 PWs)   bands (ev):

   -20.7931  -8.9304  -8.6760  -7.0418   2.3597   3.0450   3.1887   4.1767

          k = 0.0000 0.2304 0.0000 (  3042 PWs)   bands (ev):

   -20.9552  -8.8664  -8.5067  -6.8642   2.1367   2.8200   2.9606   3.9540

          k = 0.0000 0.2112 0.0000 (  3048 PWs)   bands (ev):

   -21.1047  -9.0427  -8.0940  -6.6850   1.9314   2.6125   2.7508   3.7478

          k = 0.0000 0.1920 0.0000 (  3044 PWs)   bands (ev):

   -21.2414  -9.2044  -7.6953  -6.5065   1.7438   2.4229   2.5592   3.5591

          k = 0.0000 0.1728 0.0000 (  3036 PWs)   bands (ev):

   -21.3652  -9.3513  -7.3142  -6.3310   1.5741   2.2510   2.3859   3.3880

          k = 0.0000 0.1536 0.0000 (  3026 PWs)   bands (ev):

   -21.4762  -9.4832  -6.9546  -6.1609   1.4222   2.0972   2.2308   3.2348

          k = 0.0000 0.1344 0.0000 (  3024 PWs)   bands (ev):

   -21.5743  -9.5999  -6.6209  -5.9993   1.2881   1.9614   2.0939   3.0995

          k = 0.0000 0.1152 0.0000 (  3046 PWs)   bands (ev):

   -21.6594  -9.7014  -6.3177  -5.8498   1.1720   1.8436   1.9753   2.9822

          k = 0.0000 0.0960 0.0000 (  3040 PWs)   bands (ev):

   -21.7314  -9.7874  -6.0496  -5.7153   1.0736   1.7440   1.8750   2.8829

          k = 0.0000 0.0768 0.0000 (  3044 PWs)   bands (ev):

   -21.7904  -9.8579  -5.8216  -5.5992   0.9932   1.6624   1.7929   2.8016

          k = 0.0000 0.0576 0.0000 (  3053 PWs)   bands (ev):

   -21.8363  -9.9128  -5.6386  -5.5048   0.9306   1.5990   1.7290   2.7383

          k = 0.0000 0.0384 0.0000 (  3057 PWs)   bands (ev):

   -21.8691  -9.9521  -5.5047  -5.4349   0.8860   1.5536   1.6834   2.6931

          k = 0.0000 0.0192 0.0000 (  3053 PWs)   bands (ev):

   -21.8888  -9.9757  -5.4230  -5.3916   0.8592   1.5264   1.6560   2.6660

          k = 0.0000 0.0000 0.0000 (  3053 PWs)   bands (ev):

   -21.8953  -9.9835  -5.3960  -5.3767   0.8502   1.5174   1.6469   2.6570

     Writing output data file graphene.save

     init_run     :      2.79s CPU      3.61s WALL (       1 calls)
     electrons    :     62.58s CPU     78.32s WALL (       1 calls)

     Called by init_run:
     wfcinit      :     -0.00s CPU      0.00s WALL (       1 calls)
     potinit      :      0.38s CPU      0.56s WALL (       1 calls)

     Called by electrons:
     c_bands      :     62.58s CPU     78.32s WALL (       1 calls)
     v_of_rho     :      0.19s CPU      0.22s WALL (       1 calls)
     newd         :      0.11s CPU      0.38s WALL (       1 calls)
     PAW_pot      :      0.13s CPU      0.21s WALL (       1 calls)

     Called by c_bands:
     init_us_2    :      0.10s CPU      0.11s WALL (      91 calls)
     cegterg      :     59.42s CPU     74.38s WALL (     209 calls)

     Called by sum_band:

     Called by *egterg:
     h_psi        :     49.26s CPU     62.21s WALL (    3649 calls)
     s_psi        :      1.40s CPU      1.75s WALL (    3649 calls)
     g_psi        :      0.29s CPU      0.44s WALL (    3349 calls)
     cdiaghg      :      0.66s CPU      0.88s WALL (    3440 calls)

     Called by h_psi:
     h_psi:pot    :     49.05s CPU     62.00s WALL (    3649 calls)
     h_psi:calbec :      1.62s CPU      2.12s WALL (    3649 calls)
     vloc_psi     :     45.97s CPU     57.99s WALL (    3649 calls)
     add_vuspsi   :      1.38s CPU      1.80s WALL (    3649 calls)

     General routines
     calbec       :      1.58s CPU      2.07s WALL (    3649 calls)
     fft          :      0.12s CPU      0.18s WALL (      13 calls)
     ffts         :     -0.00s CPU      0.01s WALL (       1 calls)
     fftw         :     41.83s CPU     52.78s WALL (   30740 calls)
     interpolate  :      0.01s CPU      0.03s WALL (       1 calls)
     davcio       :      0.01s CPU      0.02s WALL (      91 calls)

     Parallel routines
     fft_scatter  :      2.69s CPU      3.74s WALL (   30754 calls)

     PWSCF        :  1m 5.95s CPU     1m22.55s WALL


   This run was terminated on:  14:32:30  27May2021            

=------------------------------------------------------------------------------=
   JOB DONE.
=------------------------------------------------------------------------------=
